% Model:              Untitled.mph
% Version:            COMSOL 6.2.0.278
% Date:               Sep 17 2025, 09:57
% Dimension:          2
% Nodes:              38032
% Expressions:        1
% Description:        Surface
% R                       Z                        Temperature
385.56037018378396        -190.52812743198305      300.3940347660896
386.00000000000006        -190                     300.37575969466786
385                       -190                     300.3751305039362
392.6811459326747         -190.54146125449785      300.4029780518182
393                       -190                     300.3882529768088
392                       -190                     300.38454150091025
393.5894276281326         -190.64742882068344      300.4088640102095
394                       -190                     300.3928758966226
394.41587642880285        -190.60839948114054      300.41072378737834
395                       -190                     300.3982912557832
395.2609577860088         -190.92684802029095      300.4224751614723
396                       -190                     300.40383492346035
396.1443791390164         -190.79778996985894      300.4223486778539
397                       -190                     300.4092203348032
400                       -190                     300.41981252794193
399.93039525226834        -190.59905036307194      300.4289028023884
401                       -190                     300.42033083083584
399                       -190                     300.4172601869436
388.34502172641277        -190.63069928911432      300.39921228978875
388.99999999999994        -189.99999999999997      300.37844125475465
388.00000000000006        -190.00000000000003      300.377334099073
386.36424685909884        -190.6186697124503       300.3976195351451
387                       -190                     300.3764513083385
387.471278972294          -190.65777332764065      300.3995361367468
385.7061771542072         -191.12169802021268      300.41537195790033
384                       -190                     300.37460206643254
384.7341462562693         -190.90853947031079      300.4072688245756
383.54531666345804        -190.7220092965436       300.4002251385165
383                       -190                     300.37415660055797
382.5509620045618         -190.8149766812378       300.4032919992197
382                       -190                     300.373764911142
381.6310059188851         -190.642459674637        300.39681960030896
381                       -190                     300.3734066557451
378.5943399881121         -190.58680682698372      300.39411864014744
379                       -189.99999999999997      300.372805001322
378                       -190                     300.37254264543884
380                       -190                     300.3730814477571
380.63150046683245        -190.80289852518774      300.40242890234043
379.47493746816247        -190.754243401721        300.4004177426868
377                       -190                     300.37229865542946
377.6722834344418         -190.86127810568         300.4040748500001
376.56716108314686        -190.72515888662633      300.39886742775667
376                       -190                     300.3720873907849
375.66149381100433        -190.59510583181725      300.3939394791268
375                       -190                     300.3718868874989
390.99999999999994        -190                     300.38177050505914
391.9299234424283         -190.87652278839667      300.411690961223
392.8863785928129         -191.18335466340903      300.42370877039184
394.1217415347131         -191.79552495920754      300.4458413596148
396.95766822810464        -191.23095984718876      300.43572241632
398                       -190.00000000000003      300.41343180384774
395.5122172060396         -192.03182220334378      300.4564952220166
398.6519762613417         -191.2815058918587       300.44125209203617
401                       -191.713745923501        300.45298654603073
389.2236958460284         -191.04744004257176      300.41429113291883
390                       -190                     300.37979998910305
390.62922941077017        -191.21286217658076      300.4211564906402
388.00454774050576        -191.50521048370967      300.42996515819453
386.49660315610646        -191.5532802699164       300.43125814039877
385.2766233810378         -191.95644898199248      300.4457656095589
383.44148896687           -191.88650510816004      300.44283911951464
381.6879604781576         -191.63888600808613      300.43346879892675
378.7565203822796         -191.47947927085985      300.4271607519576
380.00949753268696        -191.79074529737363      300.4388934813637
377.395250762117          -191.81424620980204      300.43954495628395
375.8510945724609         -191.52579252313302      300.4286236956354
374                       -190                     300.37169386866947
374.84043713208087        -190.8633128191737       300.4037774646002
372.99999999999994        -190                     300.3715246737131
373.7195603463212         -190.92751817840266      300.4060396960978
372                       -190                     300.37136698027535
372.73786497561986        -190.71164956665314      300.3978969061961
367                       -190                     300.3707179154849
365.99999999999994        -190                     300.3706102473814
366.56710594866064        -191.01657085735303      300.4088388423401
367.5014014277513         -190.79786390780615      300.4006699143303
368                       -190                     300.3708293165484
356.56374101502627        -190.72923721671208      300.39748361716556
357                       -190                     300.36988188751167
356                       -190                     300.3698178263333
394.22928231674723        -248.43590967864262      302.6001577618797
401                       -255                     302.7700653952654
401                       -244.9567504070332       302.4656305277826
390.99999999999994        -255                     302.75490449036573
392.2613848060139         -192.44421963916494      300.4657164620597
394.39639460801186        -193.3886245877146       300.5013962902734
397.3707830057734         -194.47422325947937      300.5406857358139
401                       -196.33298157030418      300.61021017782565
389.3633761984821         -192.9358683060256       300.48254641186355
386.6486380338898         -192.83425433471749      300.47853842656383
384.37389089251786        -193.53119611072125      300.50449108586525
381.71479337067444        -193.10229315796352      300.4882133324032
379.07157689529083        -193.23540951615635      300.49312370461615
376.4562883829346         -193.059089798101        300.4863953224403
374.73056009596945        -192.21427473092098      300.45442659938635
371                       -190                     300.37121559838266
371.93369013632145        -190.97940961767688      300.4078122914743
373.0016062439573         -191.8070099327886       300.43897356840085
370                       -190                     300.3710713867644
370.8173066346545         -190.93860257952184      300.4062043211799
369                       -190                     300.37094062469794
369.7600320902627         -191.40089632549902      300.4235001656011
368.45509899019436        -191.22111337785503      300.41664801069055
363.52726387465657        -190.71601013222397      300.3973249512139
363.99999999999994        -189.99999999999997      300.3704167989052
363.00000000000006        -190.00000000000003      300.37032589117354
365                       -190                     300.37050889207916
365.54019052760697        -191.02127724497373      300.40895539494755
364.45366158058414        -190.97298175612232      300.4070699231548
366.13196127948686        -191.99190681462352      300.4456941249374
367.41745780657425        -192.2124523945182       300.4540794943452
355                       -190                     300.3697598923385
354.00000000000006        -190                     300.36970170348945
354.5835577825992         -190.9046554971274       300.4040723985124
355.5999231329872         -191.12641726972697      300.4125263759784
357.449406626192          -190.96946808249857      300.40662951449696
358                       -190                     300.36994474383425
359                       -190                     300.37001237007934
358.5334690440587         -191.13990243687527      300.41313494239006
360                       -190                     300.3700856780355
359.5513631391031         -190.88166180360523      300.40338741882533
361.00000000000006        -190                     300.3701598829864
360.54205007710215        -191.00835633985977      300.40822286399856
362                       -190                     300.3702412740877
362.58485416729053        -190.95416545438653      300.40626325026864
361.6056785695973         -190.7791084045118       300.3996001122063
356.7187769000205         -191.8648591317059       300.4406344882093
353                       -190                     300.36964799635786
353.60446391723394        -191.3333198501306       300.420340275334
401                       -234.91350081406642      302.0760093300246
392.22643212490425        -239.70668626415426      302.2575673241417
385.9199794588317         -247.5161117220256       302.5683535912662
381                       -255                     302.7622007758963
392.71584648751934        -196.19733287737722      300.6054093090551
395.76573491695774        -200.98372044607632      300.7873025478703
401                       -204.79127671512381      300.93212789826595
386.6000287127116         -195.81573512057992      300.5909890301016
394.2056616414835         -209.17777522443726      301.0987736616856
401                       -214.82700162813285      301.31339798608343
392.70734502268215        -219.12723228418122      301.4768035984739
401                       -224.87025122109964      301.6951826363361
392.9140021535707         -229.1867742415055       301.8592487816649
381.72405108376137        -196.14262986975493      300.6033981263161
377.57244669047583        -195.23559592298076      300.56894879092516
374.11680128129274        -194.32921988561287      300.5344912329073
371.37766553579183        -192.64714438202708      300.47063981438754
369.34642034965594        -192.93515046612532      300.4815206473946
363.57058973094905        -191.9184309094287       300.44282519467885
365.08413827475704        -192.18218625586084      300.4528703057712
366.0558098975442         -193.58800257861824      300.50627657581475
367.80804833293564        -194.23467025738307      300.5308662125209
354.7134018627749         -192.06354036577955      300.44815826684976
355.73475174723814        -192.45824640812293      300.463197051519
357.97671216703657        -192.26750947366116      300.455970468596
359.6866667414141         -192.27293542012117      300.45620337977067
361.80580575300485        -192.3114572859079       300.4577024357323
356.6861488022031         -193.36723645608168      300.4978049650762
352                       -190                     300.3695984003625
352.3912106164707         -191.3375873713483       300.4204746349479
353.87252184778754        -192.80495574193662      300.4763772815379
352.8058674938734         -192.4681627446124       300.4635395092061
351                       -190                     300.3695527434127
351.31166270113965        -191.42694464915186      300.4238521119521
350                       -190                     300.3695074789588
350.31701405346934        -191.01061874043012      300.4079771740729
347.44452745316005        -190.70957684278147      300.396435665785
347.99999999999994        -190                     300.36942474204267
347                       -190                     300.36938450814006
348.2937652788605         -190.93923723949445      300.40520833621866
349                       -190                     300.3694651094378
349.2911329836208         -191.07054296723953      300.4102349201277
344.51761523761104        -190.70808514523594      300.3963058484757
345                       -190                     300.36931093436647
344                       -190                     300.3692760616352
346                       -190                     300.36934635674925
346.55210585679123        -190.9238899106572       300.4045846096548
345.45812156586237        -191.01507816671995      300.4080391368456
340.5776525467861         -190.67305880683807      300.39488480146315
340.99999999999994        -190                     300.3691828556775
340                       -190                     300.3691538890356
338.99999999999994        -189.99999999999997      300.3691268686923
339.6109601855517         -190.9198805880401       300.40430015081716
338.00000000000006        -190.00000000000003      300.36910041707193
338.6349698312116         -190.83470465739381      300.40102813373215
341.4782363191457         -190.97264017464306      300.40634668281194
342                       -190                     300.36921235714163
343                       -190                     300.3692439360885
343.51124710559264        -190.9833695755534       300.4067919336783
342.4976840817225         -190.74717375033723      300.3977546086796
385.5844787410757         -232.50386288376603      301.985030986909
381.03851358638553        -239.73891094349864      302.25914585682125
376.0263250555285         -247.20455674741405      302.5559459168758
371                       -255                     302.7635445584546
386.15169847061713        -202.66947552414507      300.85146107502914
385.2917113731199         -213.8255119618312       301.2753466177273
384.9657570327624         -223.99911198176528      301.6620426602624
337                       -190                     300.3690761250424
337.689021186521          -191.15906258385132      300.4134142714292
336.00000000000006        -190                     300.3690529578962
336.60567990659723        -191.25847945435643      300.41720201323807
376.5839225540415         -199.40870373573742      300.72752670766516
370.70041862656626        -196.144012553104        300.60345047622747
363.96781473540165        -194.37378457207046      300.5361364285341
366.60899613956485        -196.48010373390545      300.6162275537171
354.95550803820447        -193.86917881732052      300.5169045992984
358.7894140590456         -194.4679078235029       300.5396993036438
361.14692010564164        -195.19278681180094      300.56727543640824
356.6443800499559         -195.326703151645        300.57235976039317
351.61759660095294        -192.7934070756372       300.47591699458957
352.8197597929551         -194.3073646284066       300.5335753119544
349.98227458258634        -192.55560608575914      300.4668431699128
347.3767661301485         -191.6847570637557       300.43361820497506
348.5519332744439         -191.96098141822142      300.44416455748893
344.4897946644371         -191.88790896892658      300.4413285010891
346.0581149909098         -192.16871218865376      300.45206105390474
340.5782881327042         -191.91694480434802      300.4423978153747
338.8748677839851         -192.0945801150777       300.4491710316488
342.5363443990072         -192.25912693544225      300.45548061233075
333.47219556171586        -190.70554657316026      300.39601128516546
334                       -190                     300.36900911559593
333                       -190                     300.3689880959523
335                       -190                     300.3690306572307
335.4759456280605         -191.2300802046061       300.4161034460963
334.3708245335688         -191.0633321971487       300.409713537188
376.63666080168           -229.9135534431694       301.88683075845216
371.15267189675023        -238.96525490013025      302.2293645143015
366.04678539120323        -247.00706291882992      302.54872033174655
361                       -254.99999999999997      302.76423968446994
376.91892686072947        -208.6324792776256       301.0780389617011
376.8008792104447         -219.34699747883292      301.4851698821645
337.48817457694787        -192.59845773057302      300.4683944176661
336.1076415329577         -192.61912429911757      300.46917772761157
368.97638799002846        -202.66950423023115      300.85144741545764
363.62420735890447        -199.15700278812398      300.7179686536277
354.7239912448978         -197.34781593218312      300.64921165258784
358.8377330247136         -198.49298909048073      300.6927348875161
350.39480441869233        -194.66477697454474      300.5471717786122
351.7773844884225         -197.26752513429682      300.64615701296447
347.75040824145833        -193.76410697653105      300.5128855271699
344.7115203186082         -193.66772278889854      300.5091957617636
340.6230123405921         -193.51649975695923      300.5034232807668
338.7550763084313         -194.15295891066734      300.52766640873824
342.60499950895644        -194.42103541159423      300.5378812542074
332                       -190                     300.36896885760007
332.60411099038777        -191.06356574188405      300.4097044410496
331                       -190                     300.36895010752596
331.51569766955635        -191.1764566572817       300.4140134914301
330                       -190                     300.36893160694433
330.4762822931319         -190.910166401425        300.4038083126626
329.00000000000006        -190                     300.3689149143404
329.52441519911525        -191.07725641766908      300.4101984936685
328                       -190                     300.3688979695127
328.3920638521673         -191.0294712181607       300.40835771880126
327                       -190                     300.36888156622877
327.3080411855066         -190.97556672101368      300.40628255235475
326.3806680876969         -190.679863881545        300.394942182329
326                       -190                     300.3688668000457
333.4065536818921         -191.99149079923737      300.4451957618249
334.7715277952391         -192.43954527701396      300.4623151541339
369.55714601164334        -223.34491522156065      301.6371630212614
366.1506861679092         -230.89688558452067      301.9241212014227
361.0758941635357         -238.9130688055919       302.2273976839031
356.0264421236546         -246.96003860963688      302.5469668451229
351                       -255                     302.76434352209833
367.7973955047741         -213.8315396612547       301.27558127562503
317.50785287816126        -190.67560931667228      300.39470623148065
318                       -190                     300.3687693040299
317                       -190                     300.36875829224704
325.4721881615159         -190.84005886152804      300.40107659442947
325                       -190                     300.36885359162005
324.48912009174865        -190.62930532844928      300.3929882420151
324                       -190                     300.3688401292947
322.99999999999994        -190                     300.36882709535973
323.5275739122869         -190.8893360971165       300.40295048717604
322.64755125337246        -190.64333195868372      300.3935092542906
322                       -190                     300.3688141540117
321                       -190                     300.3688028520217
321.7616141931268         -190.9497399170915       300.40525298731137
320                       -190                     300.3687913002038
320.6547058446905         -190.82873159461792      300.40060237476507
319                       -190                     300.36878109764916
319.5862157293203         -191.2485199795851       300.4166889264971
318.4157917337027         -191.05444480407718      300.4092455072028
336.96469423862527        -194.32108999348918      300.534065658208
335.34752733319556        -193.77546316872696      300.51327591443373
337.9600242849191         -195.82373471765445      300.591252335816
360.28248386103496        -205.88470137186144      300.973625303236
352.8858948626699         -200.63806797547534      300.7742471489485
355.8410428315301         -201.8224679360588       300.819253609077
348.3230166562997         -197.50691053167264      300.65525998551135
349.9718738366755         -200.46656949703282      300.7677304902263
344.75900671660736        -196.99285175126064      300.63572260125994
340.4913395920955         -196.42159712705626      300.61399937136827
332.0594998484639         -192.54793311396705      300.46644369851543
330.3382635415156         -192.3037430941026       300.45711531458795
328.9231511051009         -191.9241089547796       300.4425940096358
327.5967756232812         -192.19989521550187      300.4531318593333
326.2483157378377         -191.74132982942913      300.4355882452533
333.5358254434253         -194.17320054362972      300.52843847137837
314.61486794372126        -190.7496995502073       300.3975304935975
315                       -190                     300.3687394735499
313.99999999999994        -190                     300.3687300417434
315.99999999999994        -190                     300.3687493026838
316.614863444504          -191.02206847878057      300.407992047445
315.5302559368107         -191.01463693757756      300.407702267383
313.00000000000006        -190                     300.3687224734578
313.7338190609493         -191.09844661307318      300.4109074958049
312                       -190                     300.368714215936
312.64500473696773        -191.25675145998494      300.41697215930395
311.00000000000006        -190                     300.3687060167364
311.5942788821678         -191.22532863169317      300.4157623277131
310                       -190                     300.3686979599503
310.52322105133226        -191.1745533599842       300.41380989964017
309                       -190                     300.36869070476087
309.4855562259994         -191.19930278889007      300.414755082195
308                       -190                     300.36868360140926
308.42514072491707        -191.19205977046718      300.41447376845105
307                       -190                     300.36867715697946
307.40384749926375        -191.12269093597976      300.4118089186067
360.8855338124549         -222.3506428226456       301.59935300480333
356.05465512275435        -230.76070683020478      301.918969669746
351.0244528377987         -238.88822706722974      302.22643549717594
346.0129273413704         -246.9530993577772       302.54672545100885
340.99999999999994        -255                     302.7643415585386
356.4860609290391         -214.26176312517077      301.29193159386745
317.60828215952426        -191.93723655679685      300.4430530027543
324.5618099233231         -191.97571199414327      300.44455478952904
322.7867184540999         -191.8624225266524       300.4402087598623
320.94585487864657        -192.38926019854657      300.4603552458575
319.0352112128844         -192.63789275784663      300.4698449921305
335.5061605965863         -196.36967021132168      300.6120248235264
338.082850688857          -197.85335734573778      300.6684209296191
351.4272235076276         -205.79730241467544      300.97030355205294
346.0103774405412         -201.53113722927708      300.80818287463813
341.09090596482923        -200.20119214176466      300.75764657207895
331.12788536394777        -194.58723165669835      300.54420084230856
328.7409133112937         -193.9030484568976       300.5181400532228
326.1406223352512         -193.54540172501328      300.5044939884601
332.5669643060447         -197.35358337180347      300.6494318112745
314.7356080286965         -191.98533161699456      300.4448855270946
316.18378042543964        -192.37035913575244      300.4596126741786
313.40743365631045        -192.5988970512525       300.4683433759074
312.06538492125014        -192.63621321021262      300.46976857143864
311.0585819539843         -192.20082697242069      300.4531164812161
309.9876030592835         -192.43839787633706      300.4622017105089
308.9068605700728         -192.47654717323266      300.46365830783856
307.7545800541665         -192.3538177247007       300.45896307191555
306                       -190                     300.36867172382335
306.4158051589522         -191.11074822646873      300.4113487511169
306.8284076616781         -192.07622438614825      300.44833848661017
297.49615597171885        -190.79691370304647      300.3992749197703
297.99999999999994        -190                     300.36863187369516
297                       -190                     300.3686269996228
296                       -190                     300.36862393443823
296.5566842585898         -191.01011163999786      300.40746124529556
351.17870189170026        -222.64279861851114      301.6104613375485
346.0126618631271         -230.87261808272984      301.92321117418555
341.00584317217005        -238.9068704784988       302.2271529980949
336.0027012051198         -246.95486116571192      302.54678617692645
331                       -255                     302.76437090769986
346.3605000911252         -214.6345227152095       301.30609480157614
317.4242745533386         -194.1944245358387       300.5292331330483
323.2640014715592         -194.32135898162315      300.53408711328126
320.2308482227741         -195.00347047223522      300.5600478566837
335.66892554593227        -201.06427818532575      300.79044229315303
341.53983202262987        -207.33638882366864      301.0287881489175
329.51066050140645        -197.2671077668924       300.64614512378625
326.2326030618925         -196.4593921417358       300.61543761351504
331.1869303405489         -200.13195610155367      300.7550147949255
314.93738165778603        -194.2999736182499       300.5332569898449
305                       -190                     300.36866717766
305.4538042556426         -191.07814166070344      300.4100964111645
304.5180613381274         -190.74686196789838      300.3973760300559
304.00000000000006        -190                     300.3686630033042
303                       -190                     300.3686585068696
303.5022224888906         -190.8826906082246       300.4025946633382
302.521171365552          -190.62758447692084      300.3927896992192
302                       -190                     300.36865320832675
301                       -190                     300.36864867843644
301.56104403642166        -190.89381497378363      300.40301479191345
300.51600837744354        -190.65284007408874      300.3937535257803
300                       -190                     300.3686433729327
299                       -190                     300.3686372875435
299.49355682544603        -191.13688697921245      300.41233554244445
298.4614930630355         -191.07827563237845      300.4100845306902
312.78147531187983        -194.62166216541155      300.545501094582
310.9030654392817         -193.9185827861612       300.5187170753629
309.4606371818945         -193.58768300227752      300.5060866029213
308.14370171529276        -193.86064694490344      300.5164977670989
306.733084455256          -193.43613359897014      300.50030294236734
305.8351714143158         -192.3566339154182       300.4590700266803
295                       -190                     300.368620014503
295.4464568585575         -191.09744643515162      300.4108120068485
297.37310645848737        -192.20466444525903      300.45325126168945
296.0243862627754         -191.96164525653035      300.44393900637624
341.10636331325315        -222.8107338958488       301.61684510725877
335.99841003090677        -230.87061898117722      301.9231350498901
330.9953172794957         -238.89394432771556      302.2266558840666
325.9982173248325         -246.93652161697796      302.546131706342
320.99999999999994        -254.99999999999997      302.7644631665661
336.23989190176695        -214.7675031202107       301.3111479297329
316.15744282301665        -196.69416489994188      300.62435891372314
318.530979037973          -197.19375750532578      300.6433540672565
321.94955342492676        -199.01385381303555      300.7125354150044
331.2414713221074         -206.47154835416453      300.9959247723382
326.860441604034          -201.09431549283065      300.7915839546045
313.7736280342491         -197.61336663816485      300.6593079582501
304.4024585275884         -192.1960319689978       300.45293058406406
302.5716437020759         -191.72566523553058      300.4349248066923
300.7574407734582         -192.3568000561617       300.4590793938205
298.9556009927034         -192.58573611348112      300.46782152609535
311.37969894057386        -197.09222219680566      300.63949455504365
309.26843139363757        -195.64917538308168      300.5846120733059
306.73861587424904        -195.66052524739527      300.58504558926785
305.0980300118335         -194.30895337525507      300.53359009998394
293.99999999999994        -190                     300.36861449695493
294.3620700362655         -191.33213308084427      300.4198141316488
293                       -190                     300.36861015215766
293.36653255899205        -190.98112275958658      300.4063366289377
290.99999999999994        -190                     300.36860407683884
291.3793600993975         -190.94874438304393      300.40509285713875
292                       -190                     300.36860732543266