% Model:              HT-ATES_Gao 2024_copy.mph
% Version:            COMSOL 6.2.0.278
% Date:               Sep 12 2025, 15:08
% Dimension:          2
% Nodes:              38032
% Expressions:        1
% Description:        Surface
% R                       Z                        Temperature
385.56037018378396        -190.52812743198305      300.38996218857176
386.00000000000006        -190                     300.36997473639144
385                       -190                     300.3699238628849
392.6811459326747         -190.54146125449785      300.3907963576698
393                       -190                     300.3706741401583
392                       -190                     300.37049882480807
393.5894276281326         -190.64742882068344      300.39483353962265
394                       -190                     300.3709025094443
394.41587642880285        -190.60839948114054      300.39347049449117
395                       -190                     300.37123051871043
395.2609577860088         -190.92684802029095      300.40544035380293
396                       -190                     300.3717222314652
396.1443791390164         -190.79778996985894      300.4007824703261
397                       -190                     300.37266542139673
400                       -190                     300.38056101933984
399.93039525226834        -190.59905036307194      300.3975887449024
401                       -190                     300.38176435320025
399                       -190                     300.3771250128376
388.34502172641277        -190.63069928911432      300.3939300394149
388.99999999999994        -189.99999999999997      300.3701682487042
388.00000000000006        -190.00000000000003      300.3700950353429
386.36424685909884        -190.6186697124503       300.39341573276647
387                       -190                     300.3700268715429
387.471278972294          -190.65777332764065      300.3949249188767
385.7061771542072         -191.12169802021268      300.41252962547867
384                       -190                     300.3698805281944
384.7341462562693         -190.90853947031079      300.40440314931647
383.54531666345804        -190.7220092965436       300.39729366219035
383                       -190                     300.36984472980726
382.5509620045618         -190.8149766812378       300.4008191238889
382                       -190                     300.3698118398349
381.6310059188851         -190.642459674637        300.39423915234863
381                       -190                     300.36978129265356
378.5943399881121         -190.58680682698372      300.3920834875659
379                       -189.99999999999997      300.3697295586923
378                       -190                     300.369705598688
380                       -190                     300.369753871492
380.63150046683245        -190.80289852518774      300.40034147998864
379.47493746816247        -190.754243401721        300.3984766576835
377                       -190                     300.3696858693476
377.6722834344418         -190.86127810568         300.4025435783539
376.56716108314686        -190.72515888662633      300.3973456595009
376                       -190                     300.36966699857163
375.66149381100433        -190.59510583181725      300.3923731862539
375                       -190                     300.369648432376
390.99999999999994        -190                     300.37034828656437
391.9299234424283         -190.87652278839667      300.40334744200095
392.8863785928129         -191.18335466340903      300.4150051665809
394.1217415347131         -191.79552495920754      300.43821399523307
396.95766822810464        -191.23095984718876      300.41692863827984
398                       -190.00000000000003      300.37419707662553
395.5122172060396         -192.03182220334378      300.44719978033214
398.6519762613417         -191.2815058918587       300.41943331630904
401                       -191.713745923501        300.4354923243776
389.2236958460284         -191.04744004257176      300.4097425803928
390                       -190                     300.3702401158863
390.62922941077017        -191.21286217658076      300.41604344673146
388.00454774050576        -191.50521048370967      300.4271380368696
386.49660315610646        -191.5532802699164       300.42895468730785
385.2766233810378         -191.95644898199248      300.44429654677145
383.44148896687           -191.88650510816004      300.4416323453701
381.6879604781576         -191.63888600808613      300.432197344426
378.7565203822796         -191.47947927085985      300.4261210083225
380.00949753268696        -191.79074529737363      300.43798097551047
377.395250762117          -191.81424620980204      300.4388726576376
375.8510945724609         -191.52579252313302      300.42787836620806
374                       -190                     300.36963375931253
374.84043713208087        -190.8633128191737       300.40260641961976
372.99999999999994        -190                     300.36961957233177
373.7195603463212         -190.92751817840266      300.40505608039433
372                       -190                     300.3696051514296
372.73786497561986        -190.71164956665314      300.3968065203146
367                       -190                     300.3695480121332
365.99999999999994        -190                     300.3695378237522
366.56710594866064        -191.01657085735303      300.4084319097006
367.5014014277513         -190.79786390780615      300.40007714010386
368                       -190                     300.36956141626297
356.56374101502627        -190.72923721671208      300.39742031466204
357                       -190                     300.36947123368316
356                       -190                     300.3694666392167
394.22928231674723        -248.43590967864262      302.59960125407844
401                       -255                     302.8187181940804
401                       -244.9567504070332       302.4604019099252
390.99999999999994        -255                     302.8119558438169
392.2613848060139         -192.44421963916494      300.46285980181113
394.39639460801186        -193.3886245877146       300.4987721472318
397.3707830057734         -194.47422325947937      300.5399341820591
401                       -196.33298157030418      300.61063369423647
389.3633761984821         -192.9358683060256       300.4815520422703
386.6486380338898         -192.83425433471749      300.47768924527
384.37389089251786        -193.53119611072125      300.50418415826493
381.71479337067444        -193.10229315796352      300.48788089993474
379.07157689529083        -193.23540951615635      300.4929422414195
376.4562883829346         -193.059089798101        300.4862368904223
374.73056009596945        -192.21427473092098      300.45410102642205
371                       -190                     300.36959460822965
371.93369013632145        -190.97940961767688      300.40703054704
373.0016062439573         -191.8070099327886       300.4385966539075
370                       -190                     300.36958317380834
370.8173066346545         -190.93860257952184      300.4054660666651
369                       -190                     300.36957415248713
369.7600320902627         -191.40089632549902      300.42310872197686
368.45509899019436        -191.22111337785503      300.4162497372525
363.52726387465657        -190.71601013222397      300.3969335255696
363.99999999999994        -189.99999999999997      300.36951949947695
363.00000000000006        -190.00000000000003      300.3695111265079
365                       -190                     300.3695289448128
365.54019052760697        -191.02127724497373      300.4086090198521
364.45366158058414        -190.97298175612232      300.40676370901207
366.13196127948686        -191.99190681462352      300.4456284238018
367.41745780657425        -192.2124523945182       300.4540316374102
355                       -190                     300.3694631167485
354.00000000000006        -190                     300.36946121586317
354.5835577825992         -190.9046554971274       300.40412732869146
355.5999231329872         -191.12641726972697      300.4126157187138
357.449406626192          -190.96946808249857      300.4066163941713
358                       -190                     300.3694791261058
359                       -190                     300.3694849156169
358.5334690440587         -191.13990243687527      300.41313321372746
360                       -190                     300.3694914648695
359.5513631391031         -190.88166180360523      300.403259870186
361.00000000000006        -190                     300.3694985499261
360.54205007710215        -191.00835633985977      300.4081120849
362                       -190                     300.36950483114845
362.58485416729053        -190.95416545438653      300.4060418303979
361.6056785695973         -190.7791084045118       300.399343599758
356.7187769000205         -191.8648591317059       300.4407860768934
353                       -190                     300.36946038080544
353.60446391723394        -191.3333198501306       300.4205195535888
401                       -234.91350081406642      302.0769255441278
392.22643212490425        -239.70668626415426      302.25697349931687
385.9199794588317         -247.5161117220256       302.5642836719849
381                       -255                     302.81537896490113
392.71584648751934        -196.19733287737722      300.6055079445909
395.76573491695774        -200.98372044607632      300.78739344913964
401                       -204.79127671512381      300.9320665957199
386.6000287127116         -195.81573512057992      300.59099858003873
394.2056616414835         -209.17777522443726      301.09874787895575
401                       -214.82700162813285      301.3134460176824
392.70734502268215        -219.12723228418122      301.4768313145214
401                       -224.87025122109964      301.69496809914057
392.9140021535707         -229.1867742415055       301.85933617817255
381.72405108376137        -196.14262986975493      300.60342152026084
377.57244669047583        -195.23559592298076      300.568953000579
374.11680128129274        -194.32921988561287      300.5345138731922
371.37766553579183        -192.64714438202708      300.4705780162197
369.34642034965594        -192.93515046612532      300.48152792116883
363.57058973094905        -191.9184309094287       300.4428355882744
365.08413827475704        -192.18218625586084      300.4528791357455
366.0558098975442         -193.58800257861824      300.50634211176504
367.80804833293564        -194.23467025738307      300.5309188525587
354.7134018627749         -192.06354036577955      300.4483564536036
355.73475174723814        -192.45824640812293      300.4633802112439
357.97671216703657        -192.26750947366116      300.4561265903207
359.6866667414141         -192.27293542012117      300.45633831001163
361.80580575300485        -192.3114572859079       300.457805586776
356.6861488022031         -193.36723645608168      300.49795002559864
352                       -190                     300.36945455561994
352.3912106164707         -191.3375873713483       300.42067809380416
353.87252184778754        -192.80495574193662      300.476570816722
352.8058674938734         -192.4681627446124       300.46375772329156
351                       -190                     300.3694477144553
351.31166270113965        -191.42694464915186      300.4240904882059
350                       -190                     300.36944026699666
350.31701405346934        -191.01061874043012      300.4081776801766
347.44452745316005        -190.70957684278147      300.3966520689972
347.99999999999994        -190                     300.3694271387609
347                       -190                     300.36942446050165
348.2937652788605         -190.93923723949445      300.4054486397957
349                       -190                     300.36943390891014
349.2911329836208         -191.07054296723953      300.4104743398288
344.51761523761104        -190.70808514523594      300.39659081781224
345                       -190                     300.36941906657125
344                       -190                     300.36941640080096
346                       -190                     300.3694236291814
346.55210585679123        -190.9238899106572       300.4048619085219
345.45812156586237        -191.01507816671995      300.4083486193521
340.5776525467861         -190.67305880683807      300.3952458995032
340.99999999999994        -190                     300.3694072970666
340                       -190                     300.36940454315294
338.99999999999994        -189.99999999999997      300.36940318981937
339.6109601855517         -190.9198805880401       300.4047032718584
338.00000000000006        -190.00000000000003      300.3694031072498
338.6349698312116         -190.83470465739381      300.4014361850114
341.4782363191457         -190.97264017464306      300.4067241040347
342                       -190                     300.369411193183
343                       -190                     300.36941432993746
343.51124710559264        -190.9833695755534       300.40713587464165
342.4976840817225         -190.74717375033723      300.3980893090406
385.5844787410757         -232.50386288376603      301.98571871574404
381.03851358638553        -239.73891094349864      302.2584489299047
376.0263250555285         -247.20455674741405      302.5515990474723
371                       -255                     302.81619979503216
386.15169847061713        -202.66947552414507      300.8514343078169
385.2917113731199         -213.8255119618312       301.27539888328664
384.9657570327624         -223.99911198176528      301.66180297804175
337                       -190                     300.36940484557016
337.689021186521          -191.15906258385132      300.41385187862346
336.00000000000006        -190                     300.369403850203
336.60567990659723        -191.25847945435643      300.417652453408
376.5839225540415         -199.40870373573742      300.72753284488437
370.70041862656626        -196.144012553104        300.60347348435545
363.96781473540165        -194.37378457207046      300.5362083608164
366.60899613956485        -196.48010373390545      300.6162443036788
354.95550803820447        -193.86917881732052      300.51702915889655
358.7894140590456         -194.4679078235029       300.5397829484971
361.14692010564164        -195.19278681180094      300.56732965917973
356.6443800499559         -195.326703151645        300.5724148797906
351.61759660095294        -192.7934070756372       300.4761357116008
352.8197597929551         -194.3073646284066       300.5336801119461
349.98227458258634        -192.55560608575914      300.4670920731119
347.3767661301485         -191.6847570637557       300.43392336476023
348.5519332744439         -191.96098141822142      300.4444456722655
344.4897946644371         -191.88790896892658      300.44166336406266
346.0581149909098         -192.16871218865376      300.4523638782459
340.5782881327042         -191.91694480434802      300.44276761505625
338.8748677839851         -192.0945801150777       300.44954202014407
342.5363443990072         -192.25912693544225      300.45581143521594
333.47219556171586        -190.70554657316026      300.3964858036033
334                       -190                     300.36939374140064
333                       -190                     300.3693918684829
335                       -190                     300.3693995944228
335.4759456280605         -191.2300802046061       300.41656575666985
334.3708245335688         -191.0633321971487       300.4101884743214
376.63666080168           -229.9135534431694       301.8870956923061
371.15267189675023        -238.96525490013025      302.22913585004375
366.04678539120323        -247.00706291882992      302.5439768046861
361                       -254.99999999999997      302.81649321140395
376.91892686072947        -208.6324792776256       301.07803044388135
376.8008792104447         -219.34699747883292      301.4851616411724
337.48817457694787        -192.59845773057302      300.4687197478333
336.1076415329577         -192.61912429911757      300.4695053888789
368.97638799002846        -202.66950423023115      300.8514369225522
363.62420735890447        -199.15700278812398      300.71796757129374
354.7239912448978         -197.34781593218312      300.6492167483139
358.8377330247136         -198.49298909048073      300.69273438233176
350.39480441869233        -194.66477697454474      300.54726251895494
351.7773844884225         -197.26752513429682      300.64616566280966
347.75040824145833        -193.76410697653105      300.5130381990712
344.7115203186082         -193.66772278889854      300.5093741230017
340.6230123405921         -193.51649975695923      300.503626956961
338.7550763084313         -194.15295891066734      300.5278145495526
342.60499950895644        -194.42103541159423      300.5380010864577
332                       -190                     300.3693927203774
332.60411099038777        -191.06356574188405      300.41019880530297
331                       -190                     300.3693903997207
331.51569766955635        -191.1764566572817       300.4145156416759
330                       -190                     300.3693871810186
330.4762822931319         -190.910166401425        300.4043208677479
329.00000000000006        -190                     300.36938714096107
329.52441519911525        -191.07725641766908      300.41071992197607
328                       -190                     300.36938338861376
328.3920638521673         -191.0294712181607       300.40889064582694
327                       -190                     300.3693779862087
327.3080411855066         -190.97556672101368      300.40682657781184
326.3806680876969         -190.679863881545        300.3954937532067
326                       -190                     300.3693760614727
333.4065536818921         -191.99149079923737      300.4456127746802
334.7715277952391         -192.43954527701396      300.4626712030203
369.55714601164334        -223.34491522156065      301.6369910262117
366.1506861679092         -230.89688558452067      301.9244862160031
361.0758941635357         -238.9130688055919       302.2270743408196
356.0264421236546         -246.96003860963688      302.5421888709343
351                       -255                     302.8165307064203
367.7973955047741         -213.8315396612547       301.27562584489357
317.50785287816126        -190.67560931667228      300.3953295593667
318                       -190                     300.3693718911458
317                       -190                     300.3693694024531
325.4721881615159         -190.84005886152804      300.4016394710691
325                       -190                     300.36937599105363
324.48912009174865        -190.62930532844928      300.39355744598276
324                       -190                     300.3693749042798
322.99999999999994        -190                     300.3693738638385
323.5275739122869         -190.8893360971165       300.4035265578579
322.64755125337246        -190.64333195868372      300.3940950955008
322                       -190                     300.3693735434358
321                       -190                     300.36937668739506
321.7616141931268         -190.9497399170915       300.4058406376751
320                       -190                     300.36937756289666
320.6547058446905         -190.82873159461792      300.40119986436014
319                       -190                     300.3693774242003
319.5862157293203         -191.2485199795851       300.4172671533293
318.4157917337027         -191.05444480407718      300.409846606246
336.96469423862527        -194.32108999348918      300.5342023408694
335.34752733319556        -193.77546316872696      300.51346553900106
337.9600242849191         -195.82373471765445      300.5913018215055
360.28248386103496        -205.88470137186144      300.97361048790214
352.8858948626699         -200.63806797547534      300.774247477939
355.8410428315301         -201.8224679360588       300.81925577176844
348.3230166562997         -197.50691053167264      300.6552621897362
349.9718738366755         -200.46656949703282      300.76773042180065
344.75900671660736        -196.99285175126064      300.6357279041658
340.4913395920955         -196.42159712705626      300.61402051800223
332.0594998484639         -192.54793311396705      300.4667983557866
330.3382635415156         -192.3037430941026       300.45750791379993
328.9231511051009         -191.9241089547796       300.44304108874763
327.5967756232812         -192.19989521550187      300.4535498815712
326.2483157378377         -191.74132982942913      300.4360740844616
333.5358254434253         -194.17320054362972      300.5285848016461
314.61486794372126        -190.7496995502073       300.39816872072225
315                       -190                     300.3693684591797
313.99999999999994        -190                     300.3693684860501
315.99999999999994        -190                     300.36937046727155
316.614863444504          -191.02206847878057      300.40860510349563
315.5302559368107         -191.01463693757756      300.408321764881
313.00000000000006        -190                     300.36937238588723
313.7338190609493         -191.09844661307318      300.41152898981846
312                       -190                     300.369372766297
312.64500473696773        -191.25675145998494      300.4175824399392
311.00000000000006        -190                     300.3693720539139
311.5942788821678         -191.22532863169317      300.4163789284558
310                       -190                     300.3693705661646
310.52322105133226        -191.1745533599842       300.41443586216246
309                       -190                     300.36936956479263
309.4855562259994         -191.19930278889007      300.4153830175325
308                       -190                     300.3693671679858
308.42514072491707        -191.19205977046718      300.4151063384511
307                       -190                     300.36936460041505
307.40384749926375        -191.12269093597976      300.41245142766326
360.8855338124549         -222.3506428226456       301.59922928627185
356.05465512275435        -230.76070683020478      301.9193047725646
351.0244528377987         -238.88822706722974      302.22614123809313
346.0129273413704         -246.9530993577772       302.54193167118086
340.99999999999994        -255                     302.8165294031441
356.4860609290391         -214.26176312517077      301.29196877116914
317.60828215952426        -191.93723655679685      300.4435453308649
324.5618099233231         -191.97571199414327      300.4450183563052
322.7867184540999         -191.8624225266524       300.44069506354737
320.94585487864657        -192.38926019854657      300.46076609241624
319.0352112128844         -192.63789275784663      300.47022239154103
335.5061605965863         -196.36967021132168      300.61204708541476
338.082850688857          -197.85335734573778      300.6684275289738
351.4272235076276         -205.79730241467544      300.97029068914935
346.0103774405412         -201.53113722927708      300.80818531381095
341.09090596482923        -200.20119214176466      300.7576459214074
331.12788536394777        -194.58723165669835      300.54431727598313
328.7409133112937         -193.9030484568976       300.5183177925334
326.1406223352512         -193.54540172501328      300.5047255063159
332.5669643060447         -197.35358337180347      300.64943552878157
314.7356080286965         -191.98533161699456      300.44537832208675
316.18378042543964        -192.37035913575244      300.4600406514582
313.40743365631045        -192.5988970512525       300.46873728030477
312.06538492125014        -192.63621321021262      300.4701564483184
311.0585819539843         -192.20082697242069      300.4535797649259
309.9876030592835         -192.43839787633706      300.4626268606367
308.9068605700728         -192.47654717323266      300.46407951470354
307.7545800541665         -192.3538177247007       300.4594076593534
306                       -190                     300.3693625615797
306.4158051589522         -191.11074822646873      300.4119954029416
306.8284076616781         -192.07622438614825      300.4488327074453
297.49615597171885        -190.79691370304647      300.3999761498437
297.99999999999994        -190                     300.3693599475949
297                       -190                     300.36935940607833
296                       -190                     300.36936275288315
296.5566842585898         -191.01011163999786      300.4081436718797
351.17870189170026        -222.64279861851114      301.6103309035286
346.0126618631271         -230.87261808272984      301.9235564781593
341.00584317217005        -238.9068704784988       302.2268413522593
336.0027012051198         -246.95486116571192      302.54199863806645
331                       -255                     302.81654002296017
346.3605000911252         -214.6345227152095       301.3061351454115
317.4242745533386         -194.1944245358387       300.5293915578034
323.2640014715592         -194.32135898162315      300.53421729252574
320.2308482227741         -195.00347047223522      300.56013395411475
335.66892554593227        -201.06427818532575      300.79044479423163
341.53983202262987        -207.33638882366864      301.02877700683274
329.51066050140645        -197.2671077668924       300.64614956829837
326.2326030618925         -196.4593921417358       300.61545623400133
331.1869303405489         -200.13195610155367      300.75501513549307
314.93738165778603        -194.2999736182499       300.5334029136481
305                       -190                     300.36936126736447
305.4538042556426         -191.07814166070344      300.41074860907565
304.5180613381274         -190.74686196789838      300.39805824423104
304.00000000000006        -190                     300.3693601309149
303                       -190                     300.36935906817433
303.5022224888906         -190.8826906082246       300.4032704426431
302.521171365552          -190.62758447692084      300.39348380805194
302                       -190                     300.3693590767032
301                       -190                     300.36936242833644
301.56104403642166        -190.89381497378363      300.4036949539149
300.51600837744354        -190.65284007408874      300.39445834615594
300                       -190                     300.3693641379515
299                       -190                     300.3693617543275
299.49355682544603        -191.13688697921245      300.41299661667387
298.4614930630355         -191.07827563237845      300.4107563071763
312.78147531187983        -194.62166216541155      300.5456245067219
310.9030654392817         -193.9185827861612       300.51890629416994
309.4606371818945         -193.58768300227752      300.50632809868694
308.14370171529276        -193.86064694490344      300.5167038783424
306.733084455256          -193.43613359897014      300.5005682638152
305.8351714143158         -192.3566339154182       300.4595170207365
295                       -190                     300.36936405272536
295.4464568585575         -191.09744643515162      300.4114866685074
297.37310645848737        -192.20466444525903      300.45373547293303
296.0243862627754         -191.96164525653035      300.4444684538422
341.10636331325315        -222.8107338958488       301.6167131221677
335.99841003090677        -230.87061898117722      301.92348386818367
330.9953172794957         -238.89394432771556      302.2263510230985
325.9982173248325         -246.93652161697796      302.5413070151432
320.99999999999994        -254.99999999999997      302.81657857707063
336.23989190176695        -214.7675031202107       301.3111881643613
316.15744282301665        -196.69416489994188      300.6243777266447
318.530979037973          -197.19375750532578      300.643362209267
321.94955342492676        -199.01385381303555      300.7125264684428
331.2414713221074         -206.47154835416453      300.99591235581465
326.860441604034          -201.09431549283065      300.7915862567323
313.7736280342491         -197.61336663816485      300.65930732175315
304.4024585275884         -192.1960319689978       300.45340923488783
302.5716437020759         -191.72566523553058      300.43548690629126
300.7574407734582         -192.3568000561617       300.4595328734178
298.9556009927034         -192.58573611348112      300.4682375170566
311.37969894057386        -197.09222219680566      300.63950424421637
309.26843139363757        -195.64917538308168      300.5846686522727
306.73861587424904        -195.66052524739527      300.5851000105663
305.0980300118335         -194.30895337525507      300.5337426582768
293.99999999999994        -190                     300.3693609276692
294.3620700362655         -191.33213308084427      300.4204609603966
293                       -190                     300.36935792823846
293.36653255899205        -190.98112275958658      300.40703001942154
290.99999999999994        -190                     300.3693551951073
291.3793600993975         -190.94874438304393      300.4057923158371
292                       -190                     300.3693567494177